 # Positions of grains centers of mass
 CRYSTAL
 PRIMVEC
     80.00000000        0.00000000        0.00000000
      0.00000000       80.00000000        0.00000000
      0.00000000        0.00000000      200.00000000
 CONVVEC
     80.00000000        0.00000000        0.00000000
      0.00000000       80.00000000        0.00000000
      0.00000000        0.00000000      200.00000000
 PRIMCOORD
        4 1
1       30.00220247       40.41494283       99.58495973
1       28.19671774       31.70621717      101.04185371
1       28.89304745       34.35909862      100.57125205
1       27.90040980       31.60720229      101.33793375
