 # Positions of nodes
 CRYSTAL
 PRIMVEC
     80.00000000        0.00000000        0.00000000
      0.00000000       80.00000000        0.00000000
      0.00000000        0.00000000      200.00000000
 CONVVEC
     80.00000000        0.00000000        0.00000000
      0.00000000       80.00000000        0.00000000
      0.00000000        0.00000000      200.00000000
 PRIMCOORD
        4 1
1       76.86982063       11.45941583      115.05134921
1       72.35445716        4.68335181       97.35125429
1       18.00778653       28.45952776      159.75058988
1       53.32889143       66.03738824        1.25923979
