 # File generated with Atomsk by trong on 2025-11-02 19:24:13
 CRYSTAL
 PRIMVEC
      3.84327000        0.00000000        0.00000000
      0.00000000        3.84327000        0.00000000
      0.00000000        0.00000000        8.63904835
 CONVVEC
      3.84327000        0.00000000        0.00000000
      0.00000000        3.84327000        0.00000000
      0.00000000        0.00000000        8.63904835
 PRIMCOORD
        8 1
22        0.00000000        0.00000000        0.00000000
13        0.00000000        0.00000000        4.31952418
13        0.00000000        1.92163500        2.15976209
13        0.00000000        1.92163500        6.47928626
13        1.92163500        0.00000000        2.15976209
13        1.92163500        0.00000000        6.47928626
13        1.92163500        1.92163500        0.00000000
22        1.92163500        1.92163500        4.31952418
